HEADER
"PSFversion" "1.00"
"M0v" "m0v"
"M0n" "NCSU_Devices_FreePDK45_PMOS_VTL_hspiceD"
