HEADER
"PSFversion" "1.00"
"Viv" "viv"
"Vov" "vov"
"vss!v" "vss!v"
