HEADER
"PSFversion" "1.00"
"vdd!v" "vdd!v"
