HEADER
"PSFversion" "1.00"
"I16v" "xi16v"
"I12v" "xi12v"
"I13v" "xi13v"
"I11v" "xi11v"
"I10v" "xi10v"
"I9v" "xi9v"
"I8v" "xi8v"
"I7v" "xi7v"
"I15v" "xi15v"
"I16n I12n I13n I11n I10n I9n I8n I7n" "INVD1"
"I15n" "NAND2"
