HEADER
"PSFversion" "1.00"
"vss!v" "vss!v"
"vdd!v" "vdd!v"
