HEADER
"PSFversion" "1.00"
"Vov" "vov"
"Viv" "viv"
"vdd!v" "vdd!v"
"gnd!v" "0v"
