HEADER
"PSFversion" "1.00"
"M0v" "m0v"
"R0v" "r0v"
"M0n" "NCSU_Devices_FreePDK45_NMOS_VTL_hspiceD"
"R0n" "analogLib_res_hspiceD"
