HEADER
"PSFversion" "1.00"
"I13v" "xi13v"
"I12v" "xi12v"
"I11v" "xi11v"
"I10v" "xi10v"
"I9v" "xi9v"
"I8v" "xi8v"
"I7v" "xi7v"
"I16v" "xi16v"
"I15v" "xi15v"
"I13n I12n I11n I10n I9n I8n I7n I16n" "INVD1"
"I15n" "NAND2"
