HEADER
"PSFversion" "1.00"
"I0v" "xi0v"
"C0v" "c0v"
"I0n" "INVD1"
"C0n" "analogLib_cap_hspiceD"
