HEADER
"PSFversion" "1.00"
"__NEXT_FILE__" "q2a_2"
